# vtk DataFile Version 3.0
VTK Example Cube
ASCII
DATASET UNSTRUCTURED_GRID
POINTS 80 float
0.000000 0.000000 0.000000
1.000000 0.000000 0.000000
1.000000 1.000000 0.000000
0.000000 1.000000 0.000000
0.000000 0.000000 1.000000
1.000000 0.000000 1.000000
1.000000 1.000000 1.000000
0.000000 1.000000 1.000000
1.000000 1.000000 0.000000
2.000000 1.000000 0.000000
2.000000 2.000000 0.000000
1.000000 2.000000 0.000000
1.000000 1.000000 1.000000
2.000000 1.000000 1.000000
2.000000 2.000000 1.000000
1.000000 2.000000 1.000000
2.000000 2.000000 0.000000
3.000000 2.000000 0.000000
3.000000 3.000000 0.000000
2.000000 3.000000 0.000000
2.000000 2.000000 1.000000
3.000000 2.000000 1.000000
3.000000 3.000000 1.000000
2.000000 3.000000 1.000000
3.000000 3.000000 0.000000
4.000000 3.000000 0.000000
4.000000 4.000000 0.000000
3.000000 4.000000 0.000000
3.000000 3.000000 1.000000
4.000000 3.000000 1.000000
4.000000 4.000000 1.000000
3.000000 4.000000 1.000000
4.000000 4.000000 0.000000
5.000000 4.000000 0.000000
5.000000 5.000000 0.000000
4.000000 5.000000 0.000000
4.000000 4.000000 1.000000
5.000000 4.000000 1.000000
5.000000 5.000000 1.000000
4.000000 5.000000 1.000000
5.000000 5.000000 0.000000
6.000000 5.000000 0.000000
6.000000 6.000000 0.000000
5.000000 6.000000 0.000000
5.000000 5.000000 1.000000
6.000000 5.000000 1.000000
6.000000 6.000000 1.000000
5.000000 6.000000 1.000000
6.000000 6.000000 0.000000
7.000000 6.000000 0.000000
7.000000 7.000000 0.000000
6.000000 7.000000 0.000000
6.000000 6.000000 1.000000
7.000000 6.000000 1.000000
7.000000 7.000000 1.000000
6.000000 7.000000 1.000000
7.000000 7.000000 0.000000
8.000000 7.000000 0.000000
8.000000 8.000000 0.000000
7.000000 8.000000 0.000000
7.000000 7.000000 1.000000
8.000000 7.000000 1.000000
8.000000 8.000000 1.000000
7.000000 8.000000 1.000000
8.000000 8.000000 0.000000
9.000000 8.000000 0.000000
9.000000 9.000000 0.000000
8.000000 9.000000 0.000000
8.000000 8.000000 1.000000
9.000000 8.000000 1.000000
9.000000 9.000000 1.000000
8.000000 9.000000 1.000000
9.000000 9.000000 0.000000
10.000000 9.000000 0.000000
10.000000 10.000000 0.000000
9.000000 10.000000 0.000000
9.000000 9.000000 1.000000
10.000000 9.000000 1.000000
10.000000 10.000000 1.000000
9.000000 10.000000 1.000000

CELLS 10 90
8 0 1 2 3 4 5 6 7
8 8 9 10 11 12 13 14 15
8 16 17 18 19 20 21 22 23
8 24 25 26 27 28 29 30 31
8 32 33 34 35 36 37 38 39
8 40 41 42 43 44 45 46 47
8 48 49 50 51 52 53 54 55
8 56 57 58 59 60 61 62 63
8 64 65 66 67 68 69 70 71
8 72 73 74 75 76 77 78 79

CELL_TYPES 10
12
12
12
12
12
12
12
12
12
12

CELL_DATA 10
SCALARS data float 1
LOOKUP_TABLE default
0.0
0.1
0.2
0.3
0.4
0.5
0.6
0.7
0.8
0.9
